,$\Delta$logP error (calc - exp),Molecule ID,category,logP (calc),logP (exp),logP SEM (calc),logP SEM (exp),logP model uncertainty,name,participant,receipt_id
193,-1.11,4Butoxyphenol,Physical,1.76,2.87,0.08,0.08,1.6,YANK-extra_mols_GAFF_tip3p_dry_octanol,Danielle Bergazin,7xtra
194,-0.9900000000000002,4Chlorophenol,Physical,1.46,2.45,0.04,0.01,1.6,YANK-extra_mols_GAFF_tip3p_dry_octanol,Danielle Bergazin,7xtra
195,-0.74,4Ethoxyphenol,Physical,1.07,1.81,0.05,0.02,1.6,YANK-extra_mols_GAFF_tip3p_dry_octanol,Danielle Bergazin,7xtra
196,-1.0799999999999998,4Methoxyphenol,Physical,0.33,1.41,0.07,0.03,1.6,YANK-extra_mols_GAFF_tip3p_dry_octanol,Danielle Bergazin,7xtra
197,-0.9699999999999998,4Pentoxyphenol,Physical,2.29,3.26,0.1,0.11,1.6,YANK-extra_mols_GAFF_tip3p_dry_octanol,Danielle Bergazin,7xtra
198,-1.1500000000000001,4Propoxyphenol,Physical,1.16,2.31,0.08,0.03,1.6,YANK-extra_mols_GAFF_tip3p_dry_octanol,Danielle Bergazin,7xtra
199,-0.31999999999999984,4lodophenol,Physical,2.58,2.9,0.09,0.02,1.6,YANK-extra_mols_GAFF_tip3p_dry_octanol,Danielle Bergazin,7xtra
200,0.96,Acebutolol,Physical,2.71,1.75,0.31,0.19,1.6,YANK-extra_mols_GAFF_tip3p_dry_octanol,Danielle Bergazin,7xtra
201,-1.4099999999999997,Amylobarbitone,Physical,0.6,2.01,0.08,0.03,1.6,YANK-extra_mols_GAFF_tip3p_dry_octanol,Danielle Bergazin,7xtra
202,-0.32000000000000006,Benzoicacid,Physical,1.64,1.96,0.68,0.02,1.6,YANK-extra_mols_GAFF_tip3p_dry_octanol,Danielle Bergazin,7xtra
203,-0.7000000000000001,Butobarbitone,Physical,0.88,1.58,0.28,0.07,1.6,YANK-extra_mols_GAFF_tip3p_dry_octanol,Danielle Bergazin,7xtra
204,0.5100000000000002,Celiprolol,Physical,2.43,1.92,0.3,0.04,1.6,YANK-extra_mols_GAFF_tip3p_dry_octanol,Danielle Bergazin,7xtra
205,-0.6599999999999993,Chlorpromazine,Physical,4.73,5.39,0.09,0.01,1.6,YANK-extra_mols_GAFF_tip3p_dry_octanol,Danielle Bergazin,7xtra
206,-2.0,Ketoprofen,Physical,1.14,3.14,0.13,0.02,1.6,YANK-extra_mols_GAFF_tip3p_dry_octanol,Danielle Bergazin,7xtra
207,-1.8199999999999998,NMethylaniline,Physical,-0.17,1.65,0.05,0.01,1.6,YANK-extra_mols_GAFF_tip3p_dry_octanol,Danielle Bergazin,7xtra
208,-0.3700000000000001,Pentobarbitone,Physical,1.71,2.08,0.11,0.06,1.6,YANK-extra_mols_GAFF_tip3p_dry_octanol,Danielle Bergazin,7xtra
209,1.8800000000000003,Pericyazine,Physical,5.53,3.65,0.09,0.08,1.6,YANK-extra_mols_GAFF_tip3p_dry_octanol,Danielle Bergazin,7xtra
210,-0.55,Phenobarbitone,Physical,0.98,1.53,0.11,0.03,1.6,YANK-extra_mols_GAFF_tip3p_dry_octanol,Danielle Bergazin,7xtra
211,-1.55,Phenol,Physical,-0.07,1.48,0.04,0.01,1.6,YANK-extra_mols_GAFF_tip3p_dry_octanol,Danielle Bergazin,7xtra
212,-1.6400000000000001,Quinalbarbitone,Physical,0.75,2.39,0.46,0.02,1.6,YANK-extra_mols_GAFF_tip3p_dry_octanol,Danielle Bergazin,7xtra
213,-0.6199999999999999,Quinoline,Physical,1.53,2.15,0.07,0.08,1.6,YANK-extra_mols_GAFF_tip3p_dry_octanol,Danielle Bergazin,7xtra
214,0.17000000000000004,Sulfamethazine,Physical,1.06,0.89,0.15,0.03,1.6,YANK-extra_mols_GAFF_tip3p_dry_octanol,Danielle Bergazin,7xtra
215,-0.9300000000000002,rPropranolol,Physical,2.42,3.35,0.26,0.03,1.6,YANK-extra_mols_GAFF_tip3p_dry_octanol,Danielle Bergazin,7xtra