,$\Delta$logP error (calc - exp),Molecule ID,category,logP (calc),logP (exp),logP SEM (calc),logP SEM (exp),logP model uncertainty,name,participant,receipt_id
197,-0.5299999999999998,4Pentoxyphenol,Physical,2.73,3.26,0.08,0.11,1.6,YANK-SMIRNOFF-TIP3P-wet-oct,Danielle Bergazin,EXT05
198,-0.31000000000000005,4Propoxyphenol,Physical,2.0,2.31,0.04,0.03,1.6,YANK-SMIRNOFF-TIP3P-wet-oct,Danielle Bergazin,EXT05
199,-0.040000000000000036,4lodophenol,Physical,2.86,2.9,0.07,0.02,1.6,YANK-SMIRNOFF-TIP3P-wet-oct,Danielle Bergazin,EXT05
200,1.5,Acebutolol,Physical,3.25,1.75,0.2,0.19,1.6,YANK-SMIRNOFF-TIP3P-wet-oct,Danielle Bergazin,EXT05
201,-0.4099999999999997,Amylobarbitone,Physical,1.6,2.01,0.3,0.03,1.6,YANK-SMIRNOFF-TIP3P-wet-oct,Danielle Bergazin,EXT05
202,-2.09,Benzoicacid,Physical,-0.13,1.96,0.03,0.02,1.6,YANK-SMIRNOFF-TIP3P-wet-oct,Danielle Bergazin,EXT05
203,0.20999999999999996,Butobarbitone,Physical,1.79,1.58,0.12,0.07,1.6,YANK-SMIRNOFF-TIP3P-wet-oct,Danielle Bergazin,EXT05
204,1.13,Celiprolol,Physical,3.05,1.92,0.4,0.04,1.6,YANK-SMIRNOFF-TIP3P-wet-oct,Danielle Bergazin,EXT05
205,-0.02999999999999936,Chlorpromazine,Physical,5.36,5.39,0.33,0.01,1.6,YANK-SMIRNOFF-TIP3P-wet-oct,Danielle Bergazin,EXT05
206,-2.34,Ketoprofen,Physical,0.8,3.14,0.16,0.02,1.6,YANK-SMIRNOFF-TIP3P-wet-oct,Danielle Bergazin,EXT05
207,-1.65,NMethylaniline,Physical,0.0,1.65,0.09,0.01,1.6,YANK-SMIRNOFF-TIP3P-wet-oct,Danielle Bergazin,EXT05
208,0.20999999999999996,Pentobarbitone,Physical,2.29,2.08,0.05,0.06,1.6,YANK-SMIRNOFF-TIP3P-wet-oct,Danielle Bergazin,EXT05
209,2.39,Pericyazine,Physical,6.04,3.65,0.46,0.08,1.6,YANK-SMIRNOFF-TIP3P-wet-oct,Danielle Bergazin,EXT05
210,0.32000000000000006,Phenobarbitone,Physical,1.85,1.53,0.14,0.03,1.6,YANK-SMIRNOFF-TIP3P-wet-oct,Danielle Bergazin,EXT05
211,-1.0899999999999999,Phenol,Physical,0.39,1.48,0.07,0.01,1.6,YANK-SMIRNOFF-TIP3P-wet-oct,Danielle Bergazin,EXT05
212,-1.06,Quinalbarbitone,Physical,1.33,2.39,0.22,0.02,1.6,YANK-SMIRNOFF-TIP3P-wet-oct,Danielle Bergazin,EXT05
213,-0.5299999999999998,Quinoline,Physical,1.62,2.15,0.07,0.08,1.6,YANK-SMIRNOFF-TIP3P-wet-oct,Danielle Bergazin,EXT05
214,0.62,Sulfamethazine,Physical,1.51,0.89,0.27,0.03,1.6,YANK-SMIRNOFF-TIP3P-wet-oct,Danielle Bergazin,EXT05
215,-0.71,rPropranolol,Physical,2.64,3.35,0.29,0.03,1.6,YANK-SMIRNOFF-TIP3P-wet-oct,Danielle Bergazin,EXT05
297,0.46999999999999975,34Dichlorophenol,Physical,3.86,3.39,0.5,0.02,1.6,YANK-SMIRNOFF-OPC-wet-oct,Danielle Bergazin,EXT06
298,-0.44999999999999973,35Dichlorophenol,Physical,3.18,3.63,0.59,0.02,1.6,YANK-SMIRNOFF-OPC-wet-oct,Danielle Bergazin,EXT06
299,1.4500000000000002,3Bromoquinoline,Physical,4.36,2.91,0.1,0.04,1.6,YANK-SMIRNOFF-OPC-wet-oct,Danielle Bergazin,EXT06
300,-1.3099999999999998,3Chlorophenol,Physical,1.26,2.57,0.15,0.01,1.6,YANK-SMIRNOFF-OPC-wet-oct,Danielle Bergazin,EXT06
301,0.4299999999999997,4Butoxyphenol,Physical,3.3,2.87,0.41,0.08,1.6,YANK-SMIRNOFF-OPC-wet-oct,Danielle Bergazin,EXT06
302,-0.28000000000000025,4Chlorophenol,Physical,2.17,2.45,0.4,0.01,1.6,YANK-SMIRNOFF-OPC-wet-oct,Danielle Bergazin,EXT06
303,-0.5,4Ethoxyphenol,Physical,1.31,1.81,0.33,0.02,1.6,YANK-SMIRNOFF-OPC-wet-oct,Danielle Bergazin,EXT06
304,0.27,4Methoxyphenol,Physical,1.68,1.41,0.4,0.03,1.6,YANK-SMIRNOFF-OPC-wet-oct,Danielle Bergazin,EXT06
305,-0.09999999999999964,4Pentoxyphenol,Physical,3.16,3.26,0.12,0.11,1.6,YANK-SMIRNOFF-OPC-wet-oct,Danielle Bergazin,EXT06
306,-0.9000000000000001,4Propoxyphenol,Physical,1.41,2.31,0.22,0.03,1.6,YANK-SMIRNOFF-OPC-wet-oct,Danielle Bergazin,EXT06
307,-0.27,4lodophenol,Physical,2.63,2.9,0.13,0.02,1.6,YANK-SMIRNOFF-OPC-wet-oct,Danielle Bergazin,EXT06
308,1.2000000000000002,Acebutolol,Physical,2.95,1.75,0.72,0.19,1.6,YANK-SMIRNOFF-OPC-wet-oct,Danielle Bergazin,EXT06
309,0.10000000000000009,Amylobarbitone,Physical,2.11,2.01,0.36,0.03,1.6,YANK-SMIRNOFF-OPC-wet-oct,Danielle Bergazin,EXT06
310,-1.44,Benzoicacid,Physical,0.52,1.96,0.59,0.02,1.6,YANK-SMIRNOFF-OPC-wet-oct,Danielle Bergazin,EXT06
311,-0.29000000000000004,Butobarbitone,Physical,1.29,1.58,0.62,0.07,1.6,YANK-SMIRNOFF-OPC-wet-oct,Danielle Bergazin,EXT06
312,3.79,Celiprolol,Physical,5.71,1.92,0.24,0.04,1.6,YANK-SMIRNOFF-OPC-wet-oct,Danielle Bergazin,EXT06
313,0.20000000000000018,Chlorpromazine,Physical,5.59,5.39,0.11,0.01,1.6,YANK-SMIRNOFF-OPC-wet-oct,Danielle Bergazin,EXT06
314,-0.77,Ketoprofen,Physical,2.37,3.14,1.37,0.02,1.6,YANK-SMIRNOFF-OPC-wet-oct,Danielle Bergazin,EXT06
315,-1.42,NMethylaniline,Physical,0.23,1.65,0.18,0.01,1.6,YANK-SMIRNOFF-OPC-wet-oct,Danielle Bergazin,EXT06
316,1.6,Pentobarbitone,Physical,3.68,2.08,0.34,0.06,1.6,YANK-SMIRNOFF-OPC-wet-oct,Danielle Bergazin,EXT06
317,2.1199999999999997,Pericyazine,Physical,5.77,3.65,0.34,0.08,1.6,YANK-SMIRNOFF-OPC-wet-oct,Danielle Bergazin,EXT06
318,0.27,Phenobarbitone,Physical,1.8,1.53,0.08,0.03,1.6,YANK-SMIRNOFF-OPC-wet-oct,Danielle Bergazin,EXT06
319,-1.35,Phenol,Physical,0.13,1.48,0.41,0.01,1.6,YANK-SMIRNOFF-OPC-wet-oct,Danielle Bergazin,EXT06
320,-0.56,Quinalbarbitone,Physical,1.83,2.39,0.27,0.02,1.6,YANK-SMIRNOFF-OPC-wet-oct,Danielle Bergazin,EXT06
321,0.6499999999999999,Quinoline,Physical,2.8,2.15,0.13,0.08,1.6,YANK-SMIRNOFF-OPC-wet-oct,Danielle Bergazin,EXT06
322,-0.030000000000000027,Sulfamethazine,Physical,0.86,0.89,0.27,0.03,1.6,YANK-SMIRNOFF-OPC-wet-oct,Danielle Bergazin,EXT06
323,-0.20999999999999996,rPropranolol,Physical,3.14,3.35,0.56,0.03,1.6,YANK-SMIRNOFF-OPC-wet-oct,Danielle Bergazin,EXT06